                         Program Version 5.0.4 -  RELEASE  -
|  1> ! B3LYP def2-TZVP def2/J OPT TightOpt FREQ
|  2>
|  3> * xyz 0 1
|  4>    C       -8.44174        0.21370        0.00000
|  5>    C       -7.17489        0.62142        0.00000
|  6>    H       -8.71487       -0.72541        0.47062
|  7>    H       -9.21135        0.81722       -0.47062
|  8>    H       -6.40529        0.01790        0.47062
|  9>    H       -6.90176        1.56053       -0.47062
| 10> *
| 11>
| 12>                          ****END OF INPUT****
 Total Charge           Charge          ....    0
 Multiplicity           Mult            ....    1
 Number of Electrons    NEL             ....   16
FINAL SINGLE POINT ENERGY       -78.565280696229
FINAL SINGLE POINT ENERGY       -78.565534106746
FINAL SINGLE POINT ENERGY       -78.565716160357
FINAL SINGLE POINT ENERGY       -78.565718288881
                    ***********************HURRAY********************

CARTESIAN COORDINATES (ANGSTROEM)
---------------------------------
  C     -8.438960    0.214573   -0.000071
  C     -7.177673    0.620547    0.000071
  H     -8.737635   -0.718654    0.462858
  H     -9.225924    0.798474   -0.462826
  H     -6.390710    0.036647    0.462826
  H     -6.878999    1.553773   -0.462857

 Multiplicity           Mult            ....    1
 Number of Electrons    NEL             ....   16
 Basis Dimension        Dim             ....   86

ORBITAL ENERGIES
----------------

  NO   OCC          E(Eh)            E(eV)
   0   2.0000     -10.169806      -276.7345
   1   2.0000     -10.168877      -276.7092
   2   2.0000      -0.762764       -20.7559
   3   2.0000      -0.580852       -15.8058
   4   2.0000      -0.471385       -12.8270
   5   2.0000      -0.423933       -11.5358
   6   2.0000      -0.356660        -9.7052
   7   2.0000      -0.278094        -7.5673
   8   0.0000      -0.001876        -0.0511
   9   0.0000       0.067512         1.8371
  10   0.0000       0.090117         2.4522
  11   0.0000       0.091760         2.4969
  12   0.0000       0.151817         4.1311

MULLIKEN ATOMIC CHARGES
-----------------------
   0 C :   -0.220918
   1 C :   -0.220909
   2 H :    0.110452
   3 H :    0.110462
   4 H :    0.110462
   5 H :    0.110451
Sum of atomic charges:    0.0000000

LOEWDIN ATOMIC CHARGES
----------------------
   0 C :   -0.235744
   1 C :   -0.235738
   2 H :    0.117872
   3 H :    0.117869
   4 H :    0.117869
   5 H :    0.117872

  Mayer bond orders larger than 0.100000
B(  0-C ,  1-C ) :   1.9566 B(  0-C ,  2-H ) :   0.9639 B(  0-C ,  3-H ) :   0.9639
B(  1-C ,  4-H ) :   0.9639 B(  1-C ,  5-H ) :   0.9639

FINAL SINGLE POINT ENERGY       -78.565718346481

DIPOLE MOMENT
-------------
                                X             Y             Z
Electronic contribution:      0.00001       0.00000      -0.00000
Nuclear contribution   :     -0.00000      -0.00000       0.00000
                        -----------------------------------------
Total Dipole Moment    :      0.00001       0.00000       0.00000
                        -----------------------------------------
Magnitude (a.u.)       :      0.00001
Magnitude (Debye)      :      0.00002

VIBRATIONAL FREQUENCIES
-----------------------

Scaling factor for frequencies =  1.000000000  (already applied!)

   0:         0.00 cm**-1
   1:         0.00 cm**-1
   2:         0.00 cm**-1
   3:         0.00 cm**-1
   4:         0.00 cm**-1
   5:         0.00 cm**-1
   6:       836.95 cm**-1
   7:       977.49 cm**-1
   8:       982.82 cm**-1
   9:      1062.81 cm**-1
  10:      1246.06 cm**-1
  11:      1382.31 cm**-1
  12:      1478.78 cm**-1
  13:      1691.07 cm**-1
  14:      3127.60 cm**-1
  15:      3140.35 cm**-1
  16:      3195.86 cm**-1
  17:      3224.08 cm**-1

IR SPECTRUM
-----------

 Mode   freq       eps      Int      T**2         TX        TY        TZ
       cm**-1   L/(mol*cm) km/mol    a.u.
----------------------------------------------------------------------------
  6:    836.95   0.000043    0.21  0.000016  (-0.001069  0.003288 -0.001973)
  7:    977.49   0.020291  102.54  0.006478  (-0.012329  0.038473  0.069611)
  8:    982.82   0.000000    0.00  0.000000  (-0.000013  0.000041  0.000074)
  9:   1062.81   0.000000    0.00  0.000000  (-0.000063 -0.000035 -0.000009)
 10:   1246.06   0.000000    0.00  0.000000  ( 0.000000  0.000000 -0.000000)
 11:   1382.31   0.000000    0.00  0.000000  (-0.000000 -0.000000 -0.000000)
 12:   1478.78   0.001821    9.21  0.000384  (-0.018651 -0.006044  0.000009)
 13:   1691.07   0.000000    0.00  0.000000  (-0.000000 -0.000000  0.000000)
 14:   3127.60   0.003390   17.13  0.000338  ( 0.017503  0.005648 -0.000039)
 15:   3140.35   0.000000    0.00  0.000000  ( 0.000006  0.000002 -0.000000)
 16:   3195.86   0.000000    0.00  0.000000  ( 0.000001 -0.000003  0.000002)
 17:   3224.08   0.004288   21.67  0.000415  (-0.005412  0.016725 -0.010297)

--------------------------
THERMOCHEMISTRY AT 298.15K
--------------------------

Temperature         ... 298.15 K
Pressure            ... 1.00 atm
Total Mass          ... 28.05 AMU

Throughout the following assumptions are being made:
  (1) The electronic state is orbitally nondegenerate
  (2) There are no thermally accessible electronically excited states
  (3) Hindered rotations indicated by low frequency modes are not
      treated as such but are treated as vibrations and this may
      cause some error
  (4) All equations used are the standard statistical mechanics
      equations for an ideal gas
  (5) All vibrations are strictly harmonic

freq.     836.95  E(vib)   ...       0.04
freq.     977.49  E(vib)   ...       0.03
freq.     982.82  E(vib)   ...       0.02
freq.    1062.81  E(vib)   ...       0.02
freq.    1246.06  E(vib)   ...       0.01
freq.    1382.31  E(vib)   ...       0.01
freq.    1478.78  E(vib)   ...       0.00
freq.    1691.07  E(vib)   ...       0.00
freq.    3127.60  E(vib)   ...       0.00
freq.    3140.35  E(vib)   ...       0.00
freq.    3195.86  E(vib)   ...       0.00
freq.    3224.08  E(vib)   ...       0.00

------------
INNER ENERGY
------------

The inner energy is: U= E(el) + E(ZPE) + E(vib) + E(rot) + E(trans)
    E(el)   - is the total energy from the electronic structure calculation
              = E(kin-el) + E(nuc-el) + E(el-el) + E(nuc-nuc)
    E(ZPE)  - the the zero temperature vibrational energy from the frequency calculation
    E(vib)  - the the finite temperature correction to E(ZPE) due to population
              of excited vibrational states
    E(rot)  - is the rotational thermal energy
    E(trans)- is the translational thermal energy

Summary of contributions to the inner energy U:
Electronic energy                ...    -78.56571835 Eh
Zero point energy                ...      0.05090835 Eh      31.95 kcal/mol
Thermal vibrational correction   ...      0.00020632 Eh       0.13 kcal/mol
Thermal rotational correction    ...      0.00141627 Eh       0.89 kcal/mol
Thermal translational correction ...      0.00141627 Eh       0.89 kcal/mol
-----------------------------------------------------------------------
Total thermal energy                    -78.51177113 Eh

Summary of corrections to the electronic energy:
(perhaps to be used in another calculation)
Total thermal correction                  0.00303886 Eh       1.91 kcal/mol
Non-thermal (ZPE) correction              0.05090835 Eh      31.95 kcal/mol
-----------------------------------------------------------------------
Total correction                          0.05394721 Eh      33.85 kcal/mol

--------
ENTHALPY
--------

The enthalpy is H = U + kB*T
                kB is Boltzmann's constant
Total free energy                 ...    -78.51177113 Eh
Thermal Enthalpy correction       ...      0.00094421 Eh       0.59 kcal/mol
-----------------------------------------------------------------------
Total Enthalpy                    ...    -78.51082692 Eh

Note: Rotational entropy computed according to Herzberg
Infrared and Raman Spectra, Chapter V,1, Van Nostrand Reinhold, 1945
Point Group:  C2h, Symmetry Number:   2
Rotational constants in cm-1:     4.923139     1.011209     0.838900

Vibrational entropy computed according to the QRRHO of S. Grimme
Chem.Eur.J. 2012 18 9955

-------
ENTROPY
-------

The entropy contributions are T*S = T*(S(el)+S(vib)+S(rot)+S(trans))
     S(el)   - electronic entropy
     S(vib)  - vibrational entropy
     S(rot)  - rotational entropy
     S(trans)- translational entropy
The entropies will be listed as multiplied by the temperature to get
units of energy

Electronic entropy                ...      0.00000000 Eh      0.00 kcal/mol
Vibrational entropy               ...      0.00025012 Eh      0.16 kcal/mol
Rotational entropy                ...      0.00818153 Eh      5.13 kcal/mol
Translational entropy             ...      0.01707111 Eh     10.71 kcal/mol
-----------------------------------------------------------------------
Final entropy term                ...      0.02550276 Eh     16.00 kcal/mol

In case the symmetry of your molecule has not been determined correctly
or in case you have a reason to use a different symmetry number we print
out the resulting rotational entropy values for sn=1,12 :
 --------------------------------------------------------
|  sn= 1 | S(rot)=       0.00883599 Eh      5.54 kcal/mol|
|  sn= 2 | S(rot)=       0.00818153 Eh      5.13 kcal/mol|
|  sn= 3 | S(rot)=       0.00779870 Eh      4.89 kcal/mol|
|  sn= 4 | S(rot)=       0.00752708 Eh      4.72 kcal/mol|
|  sn= 5 | S(rot)=       0.00731639 Eh      4.59 kcal/mol|
|  sn= 6 | S(rot)=       0.00714424 Eh      4.48 kcal/mol|
|  sn= 7 | S(rot)=       0.00699870 Eh      4.39 kcal/mol|
|  sn= 8 | S(rot)=       0.00687262 Eh      4.31 kcal/mol|
|  sn= 9 | S(rot)=       0.00676141 Eh      4.24 kcal/mol|
|  sn=10 | S(rot)=       0.00666193 Eh      4.18 kcal/mol|
|  sn=11 | S(rot)=       0.00657194 Eh      4.12 kcal/mol|
|  sn=12 | S(rot)=       0.00648979 Eh      4.07 kcal/mol|
 --------------------------------------------------------

-------------------
GIBBS FREE ENERGY
-------------------

The Gibbs free energy is G = H - T*S

Total enthalpy                    ...    -78.51082692 Eh
Total entropy correction          ...     -0.02550276 Eh    -16.00 kcal/mol
-----------------------------------------------------------------------
Final Gibbs free energy         ...    -78.53632968 Eh

For completeness - the Gibbs free energy minus the electronic energy
G-E(el)                           ...      0.02938867 Eh     18.44 kcal/mol

                             ****ORCA TERMINATED NORMALLY****
TOTAL RUN TIME: 0 days 0 hours 1 minutes 37 seconds 776 msec
