                         Program Version 5.0.4 -  RELEASE  -
|  1> ! OPT B3LYP def2-TZVP
|  2>
|  3> * xyzfile 0 1 fluoromethane.xyz
|  4>
|  5>                          ****END OF INPUT****
 Total Charge           Charge          ....    0
 Multiplicity           Mult            ....    1
 Number of Electrons    NEL             ....   18
FINAL SINGLE POINT ENERGY      -139.739601801239
FINAL SINGLE POINT ENERGY      -139.740208783391
FINAL SINGLE POINT ENERGY      -139.740232061377
FINAL SINGLE POINT ENERGY      -139.740237092010
FINAL SINGLE POINT ENERGY      -139.740238247034
                    ***********************HURRAY********************

CARTESIAN COORDINATES (ANGSTROEM)
---------------------------------
  C      0.000000   -0.000024   -0.626652
  F     -0.000000   -0.000032    0.763160
  H     -0.000000    1.032710   -0.978744
  H      0.894409   -0.516378   -0.978682
  H     -0.894409   -0.516378   -0.978682

 Multiplicity           Mult            ....    1
 Number of Electrons    NEL             ....   18
 Basis Dimension        Dim             ....   80

ORBITAL ENERGIES
----------------

  NO   OCC          E(Eh)            E(eV)
   0   2.0000     -24.659001      -671.0055
   1   2.0000     -10.241968      -278.6981
   2   2.0000      -1.186218       -32.2786
   3   2.0000      -0.701566       -19.0906
   4   2.0000      -0.487869       -13.2756
   5   2.0000      -0.482386       -13.1264
   6   2.0000      -0.482378       -13.1262
   7   2.0000      -0.348690        -9.4883
   8   2.0000      -0.348687        -9.4882
   9   0.0000       0.049925         1.3585
  10   0.0000       0.068097         1.8530
  11   0.0000       0.112614         3.0644
  12   0.0000       0.112618         3.0645
  13   0.0000       0.204352         5.5607

MULLIKEN ATOMIC CHARGES
-----------------------
   0 C :   -0.057471
   1 F :   -0.264093
   2 H :    0.107181
   3 H :    0.107191
   4 H :    0.107191
Sum of atomic charges:   -0.0000000

LOEWDIN ATOMIC CHARGES
----------------------
   0 C :   -0.332771
   1 F :    0.038009
   2 H :    0.098252
   3 H :    0.098255
   4 H :    0.098255

  Mayer bond orders larger than 0.100000
B(  0-C ,  1-F ) :   0.9666 B(  0-C ,  2-H ) :   0.9722 B(  0-C ,  3-H ) :   0.9722
B(  0-C ,  4-H ) :   0.9722

FINAL SINGLE POINT ENERGY      -139.740238380183

DIPOLE MOMENT
-------------
                                X             Y             Z
Electronic contribution:     -0.00000      -0.00002       2.94868
Nuclear contribution   :     -0.00000       0.00004      -3.68426
                        -----------------------------------------
Total Dipole Moment    :     -0.00000       0.00002      -0.73558
                        -----------------------------------------
Magnitude (a.u.)       :      0.73558
Magnitude (Debye)      :      1.86968

Rotational constants in cm-1:     5.226664     0.850646     0.850639
Rotational constants in MHz : 156691.441008 25501.723547 25501.523771

                             ****ORCA TERMINATED NORMALLY****
TOTAL RUN TIME: 0 days 0 hours 0 minutes 43 seconds 175 msec
