                         Program Version 5.0.4 -  RELEASE  -
|  1> ! OPT B3LYP def2-SVP
|  2>
|  3> * xyzfile 0 1 fluoromethane.xyz
|  4>
|  5>                          ****END OF INPUT****
 Total Charge           Charge          ....    0
 Multiplicity           Mult            ....    1
 Number of Electrons    NEL             ....   18
FINAL SINGLE POINT ENERGY      -139.563200627540
FINAL SINGLE POINT ENERGY      -139.564433695181
FINAL SINGLE POINT ENERGY      -139.564464617958
FINAL SINGLE POINT ENERGY      -139.564476757258
FINAL SINGLE POINT ENERGY      -139.564477359365
                    ***********************HURRAY********************

CARTESIAN COORDINATES (ANGSTROEM)
---------------------------------
  C     -0.000000   -0.000037   -0.608125
  F     -0.000000    0.000049    0.764752
  H      0.000000    1.037650   -0.985364
  H      0.898636   -0.518881   -0.985432
  H     -0.898636   -0.518881   -0.985432

 Multiplicity           Mult            ....    1
 Number of Electrons    NEL             ....   18
 Basis Dimension        Dim             ....   43

ORBITAL ENERGIES
----------------

  NO   OCC          E(Eh)            E(eV)
   0   2.0000     -24.655266      -670.9039
   1   2.0000     -10.257137      -279.1109
   2   2.0000      -1.160655       -31.5830
   3   2.0000      -0.683788       -18.6068
   4   2.0000      -0.481259       -13.0957
   5   2.0000      -0.473671       -12.8892
   6   2.0000      -0.473669       -12.8892
   7   2.0000      -0.334606        -9.1051
   8   2.0000      -0.334604        -9.1050
   9   0.0000       0.070692         1.9236
  10   0.0000       0.123306         3.3553
  11   0.0000       0.129126         3.5137
  12   0.0000       0.129127         3.5137
  13   0.0000       0.445553        12.1241

MULLIKEN ATOMIC CHARGES
-----------------------
   0 C :    0.233890
   1 F :   -0.284071
   2 H :    0.016734
   3 H :    0.016723
   4 H :    0.016723
Sum of atomic charges:   -0.0000000

LOEWDIN ATOMIC CHARGES
----------------------
   0 C :    0.118340
   1 F :   -0.151284
   2 H :    0.010984
   3 H :    0.010980
   4 H :    0.010980

  Mayer bond orders larger than 0.100000
B(  0-C ,  1-F ) :   0.9880 B(  0-C ,  2-H ) :   0.9772 B(  0-C ,  3-H ) :   0.9771
B(  0-C ,  4-H ) :   0.9771

FINAL SINGLE POINT ENERGY      -139.564477402624

DIPOLE MOMENT
-------------
                                X             Y             Z
Electronic contribution:     -0.00000       0.00016       3.03484
Nuclear contribution   :      0.00000      -0.00017      -3.71751
                        -----------------------------------------
Total Dipole Moment    :      0.00000      -0.00001      -0.68267
                        -----------------------------------------
Magnitude (a.u.)       :      0.68267
Magnitude (Debye)      :      1.73522

Rotational constants in cm-1:     5.177207     0.860621     0.860617
Rotational constants in MHz : 155208.769326 25800.778805 25800.643935

                             ****ORCA TERMINATED NORMALLY****
TOTAL RUN TIME: 0 days 0 hours 0 minutes 24 seconds 174 msec
