                         Program Version 5.0.4 -  RELEASE  -
|  1> ! OPT B3LYP def2-TZVP D4 TightOpt
|  2>
|  3> * xyzfile 0 1 fluoromethane.xyz
|  4>
|  5>                          ****END OF INPUT****
 Total Charge           Charge          ....    0
 Multiplicity           Mult            ....    1
 Number of Electrons    NEL             ....   18
Dispersion correction           -0.001679401
FINAL SINGLE POINT ENERGY      -139.741281202332
Dispersion correction            ... Starting D4
Dispersion correction           -0.001680382
FINAL SINGLE POINT ENERGY      -139.741888998361
Dispersion correction            ... Starting D4
Dispersion correction           -0.001680203
FINAL SINGLE POINT ENERGY      -139.741911976614
Dispersion correction            ... Starting D4
FINAL SINGLE POINT ENERGY      -139.741916894448
Dispersion correction            ... Starting D4
Dispersion correction           -0.001679827
FINAL SINGLE POINT ENERGY      -139.741918034791
Dispersion correction            ... Starting D4
Dispersion correction           -0.001679799
FINAL SINGLE POINT ENERGY      -139.741918167696
Dispersion correction            ... Starting D4
                    ***********************HURRAY********************

CARTESIAN COORDINATES (ANGSTROEM)
---------------------------------
  C     -0.000000   -0.000024   -0.626561
  F      0.000000   -0.000031    0.763139
  H     -0.000000    1.032719   -0.978767
  H      0.894417   -0.516382   -0.978705
  H     -0.894417   -0.516382   -0.978705

 Multiplicity           Mult            ....    1
 Number of Electrons    NEL             ....   18
 Basis Dimension        Dim             ....   80

ORBITAL ENERGIES
----------------

  NO   OCC          E(Eh)            E(eV)
   0   2.0000     -24.659018      -671.0060
   1   2.0000     -10.241973      -278.6983
   2   2.0000      -1.186268       -32.2800
   3   2.0000      -0.701553       -19.0902
   4   2.0000      -0.487906       -13.2766
   5   2.0000      -0.482396       -13.1267
   6   2.0000      -0.482388       -13.1264
   7   2.0000      -0.348683        -9.4881
   8   2.0000      -0.348679        -9.4880
   9   0.0000       0.049924         1.3585
  10   0.0000       0.068123         1.8537
  11   0.0000       0.112612         3.0643
  12   0.0000       0.112616         3.0644
  13   0.0000       0.204357         5.5608

MULLIKEN ATOMIC CHARGES
-----------------------
   0 C :   -0.057479
   1 F :   -0.264038
   2 H :    0.107166
   3 H :    0.107176
   4 H :    0.107176
Sum of atomic charges:   -0.0000000

LOEWDIN ATOMIC CHARGES
----------------------
   0 C :   -0.332905
   1 F :    0.038139
   2 H :    0.098254
   3 H :    0.098256
   4 H :    0.098256

  Mayer bond orders larger than 0.100000
B(  0-C ,  1-F ) :   0.9667 B(  0-C ,  2-H ) :   0.9722 B(  0-C ,  3-H ) :   0.9722
B(  0-C ,  4-H ) :   0.9722

Dispersion correction           -0.001679800
FINAL SINGLE POINT ENERGY      -139.741918176753

DIPOLE MOMENT
-------------
                                X             Y             Z
Electronic contribution:      0.00000      -0.00002       2.94897
Nuclear contribution   :     -0.00000       0.00004      -3.68434
                        -----------------------------------------
Total Dipole Moment    :     -0.00000       0.00002      -0.73537
                        -----------------------------------------
Magnitude (a.u.)       :      0.73537
Magnitude (Debye)      :      1.86916

Rotational constants in cm-1:     5.226574     0.850731     0.850724
Rotational constants in MHz : 156688.752003 25504.263828 25504.065107

                             ****ORCA TERMINATED NORMALLY****
TOTAL RUN TIME: 0 days 0 hours 0 minutes 55 seconds 844 msec
