                         Program Version 5.0.4 -  RELEASE  -
|  1> ! OPT BLYP def2-SVP
|  2>
|  3> * xyzfile 0 1 fluoromethane.xyz
|  4>
|  5>                          ****END OF INPUT****
 Total Charge           Charge          ....    0
 Multiplicity           Mult            ....    1
 Number of Electrons    NEL             ....   18
FINAL SINGLE POINT ENERGY      -139.588745254114
FINAL SINGLE POINT ENERGY      -139.591240468611
FINAL SINGLE POINT ENERGY      -139.591280564407
FINAL SINGLE POINT ENERGY      -139.591286682960
FINAL SINGLE POINT ENERGY      -139.591288147725
                    ***********************HURRAY********************

CARTESIAN COORDINATES (ANGSTROEM)
---------------------------------
  C      0.000000   -0.000020   -0.607751
  F     -0.000000   -0.000020    0.779174
  H      0.000000    1.044568   -0.990369
  H      0.904636   -0.522314   -0.990327
  H     -0.904636   -0.522314   -0.990327

 Multiplicity           Mult            ....    1
 Number of Electrons    NEL             ....   18
 Basis Dimension        Dim             ....   43

ORBITAL ENERGIES
----------------

  NO   OCC          E(Eh)            E(eV)
   0   2.0000     -24.260387      -660.1587
   1   2.0000      -9.996251      -272.0118
   2   2.0000      -1.045977       -28.4625
   3   2.0000      -0.608284       -16.5522
   4   2.0000      -0.418818       -11.3966
   5   2.0000      -0.408049       -11.1036
   6   2.0000      -0.408046       -11.1035
   7   2.0000      -0.273890        -7.4529
   8   2.0000      -0.273889        -7.4529
   9   0.0000       0.046298         1.2598
  10   0.0000       0.082288         2.2392
  11   0.0000       0.101324         2.7572
  12   0.0000       0.101329         2.7573
  13   0.0000       0.410377        11.1669

MULLIKEN ATOMIC CHARGES
-----------------------
   0 C :    0.238148
   1 F :   -0.256797
   2 H :    0.006213
   3 H :    0.006218
   4 H :    0.006218
Sum of atomic charges:   -0.0000000

LOEWDIN ATOMIC CHARGES
----------------------
   0 C :    0.113614
   1 F :   -0.141091
   2 H :    0.009159
   3 H :    0.009159
   4 H :    0.009159

  Mayer bond orders larger than 0.100000
B(  0-C ,  1-F ) :   1.0236 B(  0-C ,  2-H ) :   0.9721 B(  0-C ,  3-H ) :   0.9721
B(  0-C ,  4-H ) :   0.9721

FINAL SINGLE POINT ENERGY      -139.591288366126

DIPOLE MOMENT
-------------
                                X             Y             Z
Electronic contribution:     -0.00000      -0.00001       3.11788
Nuclear contribution   :      0.00000       0.00000      -3.75937
                        -----------------------------------------
Total Dipole Moment    :      0.00000      -0.00001      -0.64149
                        -----------------------------------------
Magnitude (a.u.)       :      0.64149
Magnitude (Debye)      :      1.63053

Rotational constants in cm-1:     5.108893     0.843354     0.843353
Rotational constants in MHz : 153160.745751 25283.103262 25283.088399

                             ****ORCA TERMINATED NORMALLY****
TOTAL RUN TIME: 0 days 0 hours 0 minutes 11 seconds 827 msec
