                         Program Version 5.0.4 -  RELEASE  -
|  1> ! OPT B2PLYP NORI def2-TZVP
|  2>
|  3> * xyzfile 0 1 fluoromethane.xyz
|  4>
|  5>                          ****END OF INPUT****
 Total Charge           Charge          ....    0
 Multiplicity           Mult            ....    1
 Number of Electrons    NEL             ....   18
MP2 TOTAL ENERGY:     -139.705477169 Eh
FINAL SINGLE POINT ENERGY      -139.705477169292
MP2 TOTAL ENERGY:     -139.705941612 Eh
FINAL SINGLE POINT ENERGY      -139.705941611650
MP2 TOTAL ENERGY:     -139.705961350 Eh
FINAL SINGLE POINT ENERGY      -139.705961349510
MP2 TOTAL ENERGY:     -139.705965693 Eh
FINAL SINGLE POINT ENERGY      -139.705965693095
MP2 TOTAL ENERGY:     -139.705966648 Eh
FINAL SINGLE POINT ENERGY      -139.705966648023
                    ***********************HURRAY********************

CARTESIAN COORDINATES (ANGSTROEM)
---------------------------------
  C      0.000000   -0.000018   -0.626933
  F     -0.000000   -0.000004    0.760678
  H     -0.000000    1.030765   -0.977790
  H      0.892687   -0.515421   -0.977777
  H     -0.892687   -0.515421   -0.977777

 Multiplicity           Mult            ....    1
 Number of Electrons    NEL             ....   18
 Basis Dimension        Dim             ....   80

ORBITAL ENERGIES
----------------

  NO   OCC          E(Eh)            E(eV)
   0   2.0000     -25.335461      -689.4129
   1   2.0000     -10.687967      -290.8344
   2   2.0000      -1.351822       -36.7849
   3   2.0000      -0.809046       -22.0152
   4   2.0000      -0.570323       -15.5193
   5   2.0000      -0.570322       -15.5192
   6   2.0000      -0.565774       -15.3955
   7   2.0000      -0.427911       -11.6440
   8   2.0000      -0.427909       -11.6440
   9   0.0000       0.092243         2.5101
  10   0.0000       0.121956         3.3186
  11   0.0000       0.157944         4.2979
  12   0.0000       0.157945         4.2979
  13   0.0000       0.247905         6.7458

MULLIKEN ATOMIC CHARGES
-----------------------
   0 C :   -0.072156
   1 F :   -0.266627
   2 H :    0.112931
   3 H :    0.112926
   4 H :    0.112926
Sum of atomic charges:   -0.0000000

LOEWDIN ATOMIC CHARGES
----------------------
   0 C :   -0.331892
   1 F :    0.036406
   2 H :    0.098496
   3 H :    0.098495
   4 H :    0.098495

  Mayer bond orders larger than 0.100000
B(  0-C ,  1-F ) :   0.9327 B(  0-C ,  2-H ) :   0.9603 B(  0-C ,  3-H ) :   0.9603
B(  0-C ,  4-H ) :   0.9603

MP2 TOTAL ENERGY:     -139.705966775 Eh
FINAL SINGLE POINT ENERGY      -139.705966774675

DIPOLE MOMENT
-------------
                                X             Y             Z
Electronic contribution:     -0.00000       0.00004       2.93494
Nuclear contribution   :      0.00000      -0.00005      -3.67672
                        -----------------------------------------
Total Dipole Moment    :     -0.00000      -0.00001      -0.74178
                        -----------------------------------------
Magnitude (a.u.)       :      0.74178
Magnitude (Debye)      :      1.88546

Rotational constants in cm-1:     5.246579     0.853572     0.853571
Rotational constants in MHz : 157288.473040 25589.450649 25589.429477

                             ****ORCA TERMINATED NORMALLY****
TOTAL RUN TIME: 0 days 0 hours 1 minutes 13 seconds 593 msec
