                         Program Version 5.0.4 -  RELEASE  -
|  1> ! OPT B2PLYP NORI def2-QZVPP VeryTightOpt
|  2>
|  3> * xyzfile 0 1 fluoromethane.xyz
|  4>
|  5>                          ****END OF INPUT****
 Total Charge           Charge          ....    0
 Multiplicity           Mult            ....    1
 Number of Electrons    NEL             ....   18
MP2 TOTAL ENERGY:     -139.727434479 Eh
FINAL SINGLE POINT ENERGY      -139.727434478830
MP2 TOTAL ENERGY:     -139.727821960 Eh
FINAL SINGLE POINT ENERGY      -139.727821959941
MP2 TOTAL ENERGY:     -139.727845933 Eh
FINAL SINGLE POINT ENERGY      -139.727845933263
MP2 TOTAL ENERGY:     -139.727850959 Eh
FINAL SINGLE POINT ENERGY      -139.727850958546
MP2 TOTAL ENERGY:     -139.727852148 Eh
FINAL SINGLE POINT ENERGY      -139.727852147727
MP2 TOTAL ENERGY:     -139.727852167 Eh
FINAL SINGLE POINT ENERGY      -139.727852166505
MP2 TOTAL ENERGY:     -139.727852229 Eh
FINAL SINGLE POINT ENERGY      -139.727852229230
                    ***********************HURRAY********************

CARTESIAN COORDINATES (ANGSTROEM)
---------------------------------
  C      0.000000   -0.000017   -0.628001
  F     -0.000000   -0.000008    0.759621
  H      0.000000    1.028933   -0.977087
  H      0.891101   -0.514504   -0.977067
  H     -0.891101   -0.514504   -0.977067

 Multiplicity           Mult            ....    1
 Number of Electrons    NEL             ....   18
 Basis Dimension        Dim             ....  204

ORBITAL ENERGIES
----------------

  NO   OCC          E(Eh)            E(eV)
   0   2.0000     -25.337464      -689.4674
   1   2.0000     -10.689077      -290.8646
   2   2.0000      -1.354026       -36.8449
   3   2.0000      -0.810723       -22.0609
   4   2.0000      -0.572219       -15.5709
   5   2.0000      -0.572218       -15.5709
   6   2.0000      -0.567386       -15.4394
   7   2.0000      -0.429768       -11.6946
   8   2.0000      -0.429766       -11.6945
   9   0.0000       0.059402         1.6164
  10   0.0000       0.096518         2.6264
  11   0.0000       0.120719         3.2849
  12   0.0000       0.120723         3.2850
  13   0.0000       0.166457         4.5295

MULLIKEN ATOMIC CHARGES
-----------------------
   0 C :    0.077828
   1 F :   -0.324995
   2 H :    0.082422
   3 H :    0.082372
   4 H :    0.082372
Sum of atomic charges:   -0.0000000

LOEWDIN ATOMIC CHARGES
----------------------
   0 C :   -0.020397
   1 F :    0.275406
   2 H :   -0.085003
   3 H :   -0.085003
   4 H :   -0.085003

  Mayer bond orders larger than 0.100000
B(  0-C ,  1-F ) :   0.8721 B(  0-C ,  2-H ) :   0.9666 B(  0-C ,  3-H ) :   0.9667
B(  0-C ,  4-H ) :   0.9667

MP2 TOTAL ENERGY:     -139.727852219 Eh
FINAL SINGLE POINT ENERGY      -139.727852218632

DIPOLE MOMENT
-------------
                                X             Y             Z
Electronic contribution:     -0.00000       0.00003       2.92874
Nuclear contribution   :      0.00000      -0.00004      -3.67204
                        -----------------------------------------
Total Dipole Moment    :      0.00000      -0.00001      -0.74330
                        -----------------------------------------
Magnitude (a.u.)       :      0.74330
Magnitude (Debye)      :      1.88931

Rotational constants in cm-1:     5.265275     0.854315     0.854315
Rotational constants in MHz : 157848.960231 25611.731631 25611.718844

                             ****ORCA TERMINATED NORMALLY****
TOTAL RUN TIME: 0 days 0 hours 35 minutes 23 seconds 387 msec
